file 2130907 1684611183                                         
version 3
run General-0-20230520-15:31:45-69337
attr configname General
attr datetime 20230520-15:31:45
attr datetimef 20230520-153145
attr experiment General
attr inifile omnetpp.ini
attr iterationvars ""
attr iterationvarsd ""
attr iterationvarsf ""
attr measurement ""
attr network Fattreenew
attr processid 69337
attr repetition 0
attr replication #0
attr resultdir results
attr runnumber 0
attr seedset 0
config network Fattreenew
config sim-time-limit 0.1s
config num-rngs 3
config **.cn[*].work_gen.rng 0
config **.cn[*].work_gen.sendInitialMessage true
config **.cn[*].work_gen.data_size 1.0
config **.cn[*].work_gen.sendInterval exponential(5.0e-4s)
config **.cn[*].work_gen.read_probability 0.0

vector 0 Fattreenew.oss[1].oss_memory queueLength:vector ETV
attr recordingmode vector
attr title "Queue length"
vector 1 Fattreenew.oss[4].oss_memory queueLength:vector ETV
attr recordingmode vector
attr title "Queue length"
vector 2 Fattreenew.oss[1].ost[5].flashBuffer[1] queueLength:vector ETV
attr recordingmode vector
attr title "Queue length"
vector 3 Fattreenew.oss[1].ost[1].flashBuffer[7] queueLength:vector ETV
attr recordingmode vector
attr title "Queue length"
vector 4 Fattreenew.oss[4].ost[5].flashBuffer[9] queueLength:vector ETV
attr recordingmode vector
attr title "Queue length"
vector 5 Fattreenew.oss[7].oss_memory queueLength:vector ETV
attr recordingmode vector
attr title "Queue length"
vector 6 Fattreenew.oss[5].oss_memory queueLength:vector ETV
attr recordingmode vector
attr title "Queue length"
vector 7 Fattreenew.oss[1].ost[6].flashBuffer[8] queueLength:vector ETV
attr recordingmode vector
attr title "Queue length"
vector 8 Fattreenew.oss[1].ost[6].flashBuffer[3] queueLength:vector ETV
attr recordingmode vector
attr title "Queue length"
vector 9 Fattreenew.oss[1].ost[5].flashBuffer[7] queueLength:vector ETV
attr recordingmode vector
attr title "Queue length"
vector 10 Fattreenew.oss[7].ost[6].flashBuffer[9] queueLength:vector ETV
attr recordingmode vector
attr title "Queue length"
vector 11 Fattreenew.oss[4].ost[0].flashBuffer[7] queueLength:vector ETV
attr recordingmode vector
attr title "Queue length"
vector 12 Fattreenew.oss[5].ost[0].flashBuffer[5] queueLength:vector ETV
attr recordingmode vector
attr title "Queue length"
vector 13 Fattreenew.oss[1].ost[0].flashBuffer[7] queueLength:vector ETV
attr recordingmode vector
attr title "Queue length"
vector 14 Fattreenew.oss[6].oss_memory queueLength:vector ETV
attr recordingmode vector
attr title "Queue length"
vector 15 Fattreenew.oss[3].oss_memory queueLength:vector ETV
attr recordingmode vector
attr title "Queue length"
vector 16 Fattreenew.oss[0].oss_memory queueLength:vector ETV
attr recordingmode vector
attr title "Queue length"
vector 17 Fattreenew.oss[5].ost[1].flashBuffer[4] queueLength:vector ETV
attr recordingmode vector
attr title "Queue length"
vector 18 Fattreenew.oss[6].ost[9].flashBuffer[7] queueLength:vector ETV
attr recordingmode vector
attr title "Queue length"
vector 19 Fattreenew.oss[7].ost[2].flashBuffer[6] queueLength:vector ETV
attr recordingmode vector
attr title "Queue length"
vector 20 Fattreenew.oss[3].ost[9].flashBuffer[7] queueLength:vector ETV
attr recordingmode vector
attr title "Queue length"
vector 21 Fattreenew.oss[7].ost[5].flashBuffer[8] queueLength:vector ETV
attr recordingmode vector
attr title "Queue length"
vector 22 Fattreenew.oss[5].ost[6].flashBuffer[6] queueLength:vector ETV
attr recordingmode vector
attr title "Queue length"
vector 23 Fattreenew.oss[3].ost[2].flashBuffer[9] queueLength:vector ETV
attr recordingmode vector
attr title "Queue length"
vector 24 Fattreenew.oss[0].ost[3].flashBuffer[5] queueLength:vector ETV
attr recordingmode vector
attr title "Queue length"
vector 25 Fattreenew.oss[7].ost[0].flashBuffer[8] queueLength:vector ETV
attr recordingmode vector
attr title "Queue length"
vector 26 Fattreenew.oss[3].ost[2].flashBuffer[4] queueLength:vector ETV
attr recordingmode vector
attr title "Queue length"
vector 27 Fattreenew.oss[0].ost[5].flashBuffer[4] queueLength:vector ETV
attr recordingmode vector
attr title "Queue length"
vector 28 Fattreenew.oss[0].ost[9].flashBuffer[0] queueLength:vector ETV
attr recordingmode vector
attr title "Queue length"
vector 29 Fattreenew.oss[3].ost[7].flashBuffer[9] queueLength:vector ETV
attr recordingmode vector
attr title "Queue length"
vector 30 Fattreenew.oss[0].ost[2].flashBuffer[3] queueLength:vector ETV
attr recordingmode vector
attr title "Queue length"
vector 31 Fattreenew.oss[1].ost[5].storageDevice[1] queueLength:vector ETV
attr recordingmode vector
attr title "Queue length"
vector 32 Fattreenew.oss[1].ost[1].storageDevice[7] queueLength:vector ETV
attr recordingmode vector
attr title "Queue length"
vector 33 Fattreenew.oss[4].ost[5].storageDevice[9] queueLength:vector ETV
attr recordingmode vector
attr title "Queue length"
vector 34 Fattreenew.oss[1].ost[6].storageDevice[8] queueLength:vector ETV
attr recordingmode vector
attr title "Queue length"
vector 35 Fattreenew.oss[1].ost[6].storageDevice[3] queueLength:vector ETV
attr recordingmode vector
attr title "Queue length"
vector 36 Fattreenew.oss[1].ost[5].storageDevice[7] queueLength:vector ETV
attr recordingmode vector
attr title "Queue length"
vector 37 Fattreenew.oss[7].ost[6].storageDevice[9] queueLength:vector ETV
attr recordingmode vector
attr title "Queue length"
vector 38 Fattreenew.oss[4].ost[0].storageDevice[7] queueLength:vector ETV
attr recordingmode vector
attr title "Queue length"
vector 39 Fattreenew.oss[5].ost[0].storageDevice[5] queueLength:vector ETV
attr recordingmode vector
attr title "Queue length"
vector 40 Fattreenew.oss[1].ost[0].storageDevice[7] queueLength:vector ETV
attr recordingmode vector
attr title "Queue length"
vector 41 Fattreenew.oss[5].ost[1].storageDevice[4] queueLength:vector ETV
attr recordingmode vector
attr title "Queue length"
vector 42 Fattreenew.oss[6].ost[9].storageDevice[7] queueLength:vector ETV
attr recordingmode vector
attr title "Queue length"
vector 43 Fattreenew.oss[7].ost[2].storageDevice[6] queueLength:vector ETV
attr recordingmode vector
attr title "Queue length"
vector 44 Fattreenew.oss[3].ost[9].storageDevice[7] queueLength:vector ETV
attr recordingmode vector
attr title "Queue length"
vector 45 Fattreenew.oss[7].ost[5].storageDevice[8] queueLength:vector ETV
attr recordingmode vector
attr title "Queue length"
vector 46 Fattreenew.oss[5].ost[6].storageDevice[6] queueLength:vector ETV
attr recordingmode vector
attr title "Queue length"
vector 47 Fattreenew.oss[3].ost[2].storageDevice[9] queueLength:vector ETV
attr recordingmode vector
attr title "Queue length"
vector 48 Fattreenew.oss[0].ost[3].storageDevice[5] queueLength:vector ETV
attr recordingmode vector
attr title "Queue length"
vector 49 Fattreenew.oss[7].ost[0].storageDevice[8] queueLength:vector ETV
attr recordingmode vector
attr title "Queue length"
vector 50 Fattreenew.oss[3].ost[2].storageDevice[4] queueLength:vector ETV
attr recordingmode vector
attr title "Queue length"
vector 51 Fattreenew.oss[0].ost[5].storageDevice[4] queueLength:vector ETV
attr recordingmode vector
attr title "Queue length"
vector 52 Fattreenew.oss[0].ost[9].storageDevice[0] queueLength:vector ETV
attr recordingmode vector
attr title "Queue length"
vector 53 Fattreenew.oss[3].ost[7].storageDevice[9] queueLength:vector ETV
attr recordingmode vector
attr title "Queue length"
vector 54 Fattreenew.oss[0].ost[2].storageDevice[3] queueLength:vector ETV
attr recordingmode vector
attr title "Queue length"
vector 55 Fattreenew.oss[7].ost[2].flashBuffer[4] queueLength:vector ETV
attr recordingmode vector
attr title "Queue length"
vector 56 Fattreenew.oss[7].ost[2].storageDevice[4] queueLength:vector ETV
attr recordingmode vector
attr title "Queue length"
vector 57 Fattreenew.oss[7].ost[5].flashBuffer[7] queueLength:vector ETV
attr recordingmode vector
attr title "Queue length"
vector 58 Fattreenew.oss[7].ost[5].storageDevice[7] queueLength:vector ETV
attr recordingmode vector
attr title "Queue length"
vector 59 Fattreenew.oss[7].ost[2].flashBuffer[0] queueLength:vector ETV
attr recordingmode vector
attr title "Queue length"
vector 60 Fattreenew.oss[7].ost[2].storageDevice[0] queueLength:vector ETV
attr recordingmode vector
attr title "Queue length"
vector 61 Fattreenew.oss[3].ost[9].flashBuffer[1] queueLength:vector ETV
attr recordingmode vector
attr title "Queue length"
vector 62 Fattreenew.oss[3].ost[9].storageDevice[1] queueLength:vector ETV
attr recordingmode vector
attr title "Queue length"
vector 63 Fattreenew.oss[2].oss_memory queueLength:vector ETV
attr recordingmode vector
attr title "Queue length"
vector 64 Fattreenew.oss[2].ost[0].flashBuffer[0] queueLength:vector ETV
attr recordingmode vector
attr title "Queue length"
vector 65 Fattreenew.oss[6].ost[3].flashBuffer[4] queueLength:vector ETV
attr recordingmode vector
attr title "Queue length"
vector 66 Fattreenew.oss[2].ost[0].storageDevice[0] queueLength:vector ETV
attr recordingmode vector
attr title "Queue length"
vector 67 Fattreenew.oss[3].ost[9].flashBuffer[5] queueLength:vector ETV
attr recordingmode vector
attr title "Queue length"
vector 68 Fattreenew.oss[0].ost[9].flashBuffer[6] queueLength:vector ETV
attr recordingmode vector
attr title "Queue length"
vector 69 Fattreenew.oss[6].ost[3].storageDevice[4] queueLength:vector ETV
attr recordingmode vector
attr title "Queue length"
vector 70 Fattreenew.oss[3].ost[9].storageDevice[5] queueLength:vector ETV
attr recordingmode vector
attr title "Queue length"
vector 71 Fattreenew.oss[0].ost[9].storageDevice[6] queueLength:vector ETV
attr recordingmode vector
attr title "Queue length"
vector 72 Fattreenew.oss[7].ost[7].flashBuffer[0] queueLength:vector ETV
attr recordingmode vector
attr title "Queue length"
vector 73 Fattreenew.oss[7].ost[7].storageDevice[0] queueLength:vector ETV
attr recordingmode vector
attr title "Queue length"
vector 74 Fattreenew.oss[7].ost[7].flashBuffer[3] queueLength:vector ETV
attr recordingmode vector
attr title "Queue length"
vector 75 Fattreenew.oss[2].ost[5].flashBuffer[5] queueLength:vector ETV
attr recordingmode vector
attr title "Queue length"
vector 76 Fattreenew.oss[2].ost[5].flashBuffer[2] queueLength:vector ETV
attr recordingmode vector
attr title "Queue length"
vector 77 Fattreenew.oss[7].ost[7].storageDevice[3] queueLength:vector ETV
attr recordingmode vector
attr title "Queue length"
vector 78 Fattreenew.oss[3].ost[1].flashBuffer[8] queueLength:vector ETV
attr recordingmode vector
attr title "Queue length"
vector 79 Fattreenew.oss[2].ost[5].storageDevice[5] queueLength:vector ETV
attr recordingmode vector
attr title "Queue length"
vector 80 Fattreenew.oss[2].ost[5].storageDevice[2] queueLength:vector ETV
attr recordingmode vector
attr title "Queue length"
vector 81 Fattreenew.oss[1].ost[4].flashBuffer[0] queueLength:vector ETV
attr recordingmode vector
attr title "Queue length"
vector 82 Fattreenew.oss[6].ost[5].flashBuffer[1] queueLength:vector ETV
attr recordingmode vector
attr title "Queue length"
vector 83 Fattreenew.oss[3].ost[1].storageDevice[8] queueLength:vector ETV
attr recordingmode vector
attr title "Queue length"
vector 84 Fattreenew.oss[2].ost[0].flashBuffer[1] queueLength:vector ETV
attr recordingmode vector
attr title "Queue length"
vector 85 Fattreenew.oss[1].ost[4].storageDevice[0] queueLength:vector ETV
attr recordingmode vector
attr title "Queue length"
vector 86 Fattreenew.oss[6].ost[5].storageDevice[1] queueLength:vector ETV
attr recordingmode vector
attr title "Queue length"
vector 87 Fattreenew.oss[2].ost[0].storageDevice[1] queueLength:vector ETV
attr recordingmode vector
attr title "Queue length"
vector 88 Fattreenew.oss[6].ost[6].flashBuffer[7] queueLength:vector ETV
attr recordingmode vector
attr title "Queue length"
vector 89 Fattreenew.oss[0].ost[0].flashBuffer[1] queueLength:vector ETV
attr recordingmode vector
attr title "Queue length"
vector 90 Fattreenew.oss[5].ost[7].flashBuffer[3] queueLength:vector ETV
attr recordingmode vector
attr title "Queue length"
vector 91 Fattreenew.oss[2].ost[7].flashBuffer[2] queueLength:vector ETV
attr recordingmode vector
attr title "Queue length"
vector 92 Fattreenew.oss[6].ost[6].storageDevice[7] queueLength:vector ETV
attr recordingmode vector
attr title "Queue length"
vector 93 Fattreenew.oss[0].ost[0].storageDevice[1] queueLength:vector ETV
attr recordingmode vector
attr title "Queue length"
vector 94 Fattreenew.oss[4].ost[1].flashBuffer[7] queueLength:vector ETV
attr recordingmode vector
attr title "Queue length"
vector 95 Fattreenew.oss[5].ost[7].storageDevice[3] queueLength:vector ETV
attr recordingmode vector
attr title "Queue length"
vector 96 Fattreenew.oss[2].ost[7].storageDevice[2] queueLength:vector ETV
attr recordingmode vector
attr title "Queue length"
vector 97 Fattreenew.oss[7].ost[9].flashBuffer[9] queueLength:vector ETV
attr recordingmode vector
attr title "Queue length"
vector 98 Fattreenew.oss[7].ost[6].flashBuffer[1] queueLength:vector ETV
attr recordingmode vector
attr title "Queue length"
vector 99 Fattreenew.oss[4].ost[1].storageDevice[7] queueLength:vector ETV
attr recordingmode vector
attr title "Queue length"
vector 100 Fattreenew.oss[7].ost[9].storageDevice[9] queueLength:vector ETV
attr recordingmode vector
attr title "Queue length"
vector 101 Fattreenew.oss[7].ost[1].flashBuffer[8] queueLength:vector ETV
attr recordingmode vector
attr title "Queue length"
vector 102 Fattreenew.oss[0].ost[1].flashBuffer[0] queueLength:vector ETV
attr recordingmode vector
attr title "Queue length"
vector 103 Fattreenew.oss[7].ost[6].storageDevice[1] queueLength:vector ETV
attr recordingmode vector
attr title "Queue length"
vector 104 Fattreenew.oss[7].ost[1].storageDevice[8] queueLength:vector ETV
attr recordingmode vector
attr title "Queue length"
vector 105 Fattreenew.oss[3].ost[1].flashBuffer[9] queueLength:vector ETV
attr recordingmode vector
attr title "Queue length"
vector 106 Fattreenew.oss[0].ost[1].storageDevice[0] queueLength:vector ETV
attr recordingmode vector
attr title "Queue length"
vector 107 Fattreenew.oss[3].ost[1].storageDevice[9] queueLength:vector ETV
attr recordingmode vector
attr title "Queue length"
vector 108 Fattreenew.oss[2].ost[7].flashBuffer[5] queueLength:vector ETV
attr recordingmode vector
attr title "Queue length"
vector 109 Fattreenew.oss[5].ost[8].flashBuffer[5] queueLength:vector ETV
attr recordingmode vector
attr title "Queue length"
vector 110 Fattreenew.oss[3].ost[9].flashBuffer[0] queueLength:vector ETV
attr recordingmode vector
attr title "Queue length"
vector 111 Fattreenew.oss[2].ost[7].storageDevice[5] queueLength:vector ETV
attr recordingmode vector
attr title "Queue length"
vector 112 Fattreenew.oss[4].ost[3].flashBuffer[0] queueLength:vector ETV
attr recordingmode vector
attr title "Queue length"
vector 113 Fattreenew.oss[5].ost[7].flashBuffer[9] queueLength:vector ETV
attr recordingmode vector
attr title "Queue length"
vector 114 Fattreenew.oss[5].ost[8].storageDevice[5] queueLength:vector ETV
attr recordingmode vector
attr title "Queue length"
vector 115 Fattreenew.oss[3].ost[5].flashBuffer[5] queueLength:vector ETV
attr recordingmode vector
attr title "Queue length"
vector 116 Fattreenew.oss[5].ost[6].flashBuffer[9] queueLength:vector ETV
attr recordingmode vector
attr title "Queue length"
vector 117 Fattreenew.oss[3].ost[9].storageDevice[0] queueLength:vector ETV
attr recordingmode vector
attr title "Queue length"
vector 118 Fattreenew.oss[5].ost[0].flashBuffer[3] queueLength:vector ETV
attr recordingmode vector
attr title "Queue length"
vector 119 Fattreenew.oss[4].ost[3].storageDevice[0] queueLength:vector ETV
attr recordingmode vector
attr title "Queue length"
vector 120 Fattreenew.oss[5].ost[7].storageDevice[9] queueLength:vector ETV
attr recordingmode vector
attr title "Queue length"
vector 121 Fattreenew.oss[3].ost[5].storageDevice[5] queueLength:vector ETV
attr recordingmode vector
attr title "Queue length"
vector 122 Fattreenew.oss[5].ost[6].storageDevice[9] queueLength:vector ETV
attr recordingmode vector
attr title "Queue length"
vector 123 Fattreenew.oss[5].ost[0].storageDevice[3] queueLength:vector ETV
attr recordingmode vector
attr title "Queue length"
vector 124 Fattreenew.oss[4].ost[0].flashBuffer[8] queueLength:vector ETV
attr recordingmode vector
attr title "Queue length"
vector 125 Fattreenew.oss[4].ost[9].flashBuffer[7] queueLength:vector ETV
attr recordingmode vector
attr title "Queue length"
vector 126 Fattreenew.oss[1].ost[4].flashBuffer[2] queueLength:vector ETV
attr recordingmode vector
attr title "Queue length"
vector 127 Fattreenew.oss[4].ost[0].storageDevice[8] queueLength:vector ETV
attr recordingmode vector
attr title "Queue length"
vector 128 Fattreenew.oss[4].ost[9].storageDevice[7] queueLength:vector ETV
attr recordingmode vector
attr title "Queue length"
vector 129 Fattreenew.oss[1].ost[7].flashBuffer[8] queueLength:vector ETV
attr recordingmode vector
attr title "Queue length"
vector 130 Fattreenew.oss[1].ost[4].storageDevice[2] queueLength:vector ETV
attr recordingmode vector
attr title "Queue length"
vector 131 Fattreenew.oss[3].ost[0].flashBuffer[0] queueLength:vector ETV
attr recordingmode vector
attr title "Queue length"
vector 132 Fattreenew.oss[4].ost[4].flashBuffer[8] queueLength:vector ETV
attr recordingmode vector
attr title "Queue length"
vector 133 Fattreenew.oss[1].ost[7].storageDevice[8] queueLength:vector ETV
attr recordingmode vector
attr title "Queue length"
vector 134 Fattreenew.oss[3].ost[0].storageDevice[0] queueLength:vector ETV
attr recordingmode vector
attr title "Queue length"
vector 135 Fattreenew.oss[6].ost[5].flashBuffer[3] queueLength:vector ETV
attr recordingmode vector
attr title "Queue length"
vector 136 Fattreenew.oss[4].ost[4].storageDevice[8] queueLength:vector ETV
attr recordingmode vector
attr title "Queue length"
vector 137 Fattreenew.oss[6].ost[5].storageDevice[3] queueLength:vector ETV
attr recordingmode vector
attr title "Queue length"
vector 138 Fattreenew.oss[0].ost[9].flashBuffer[4] queueLength:vector ETV
attr recordingmode vector
attr title "Queue length"
vector 139 Fattreenew.oss[5].ost[8].flashBuffer[3] queueLength:vector ETV
attr recordingmode vector
attr title "Queue length"
vector 140 Fattreenew.oss[0].ost[9].storageDevice[4] queueLength:vector ETV
attr recordingmode vector
attr title "Queue length"
vector 141 Fattreenew.oss[2].ost[1].flashBuffer[0] queueLength:vector ETV
attr recordingmode vector
attr title "Queue length"
vector 142 Fattreenew.oss[7].ost[4].flashBuffer[0] queueLength:vector ETV
attr recordingmode vector
attr title "Queue length"
vector 143 Fattreenew.oss[4].ost[0].flashBuffer[6] queueLength:vector ETV
attr recordingmode vector
attr title "Queue length"
vector 144 Fattreenew.oss[5].ost[8].storageDevice[3] queueLength:vector ETV
attr recordingmode vector
attr title "Queue length"
vector 145 Fattreenew.oss[2].ost[1].storageDevice[0] queueLength:vector ETV
attr recordingmode vector
attr title "Queue length"
vector 146 Fattreenew.oss[4].ost[6].flashBuffer[6] queueLength:vector ETV
attr recordingmode vector
attr title "Queue length"
vector 147 Fattreenew.oss[7].ost[4].storageDevice[0] queueLength:vector ETV
attr recordingmode vector
attr title "Queue length"
vector 148 Fattreenew.oss[4].ost[0].storageDevice[6] queueLength:vector ETV
attr recordingmode vector
attr title "Queue length"
vector 149 Fattreenew.oss[4].ost[6].storageDevice[6] queueLength:vector ETV
attr recordingmode vector
attr title "Queue length"
vector 150 Fattreenew.oss[7].ost[9].flashBuffer[8] queueLength:vector ETV
attr recordingmode vector
attr title "Queue length"
vector 151 Fattreenew.oss[0].ost[7].flashBuffer[6] queueLength:vector ETV
attr recordingmode vector
attr title "Queue length"
vector 152 Fattreenew.oss[6].ost[4].flashBuffer[3] queueLength:vector ETV
attr recordingmode vector
attr title "Queue length"
vector 153 Fattreenew.oss[4].ost[1].flashBuffer[3] queueLength:vector ETV
attr recordingmode vector
attr title "Queue length"
vector 154 Fattreenew.oss[7].ost[9].storageDevice[8] queueLength:vector ETV
attr recordingmode vector
attr title "Queue length"
vector 155 Fattreenew.oss[5].ost[5].flashBuffer[3] queueLength:vector ETV
attr recordingmode vector
attr title "Queue length"
vector 156 Fattreenew.oss[0].ost[7].storageDevice[6] queueLength:vector ETV
attr recordingmode vector
attr title "Queue length"
vector 157 Fattreenew.oss[6].ost[4].storageDevice[3] queueLength:vector ETV
attr recordingmode vector
attr title "Queue length"
vector 158 Fattreenew.oss[4].ost[1].storageDevice[3] queueLength:vector ETV
attr recordingmode vector
attr title "Queue length"
vector 159 Fattreenew.oss[2].ost[9].flashBuffer[7] queueLength:vector ETV
attr recordingmode vector
attr title "Queue length"
vector 160 Fattreenew.oss[5].ost[5].storageDevice[3] queueLength:vector ETV
attr recordingmode vector
attr title "Queue length"
vector 161 Fattreenew.oss[2].ost[9].storageDevice[7] queueLength:vector ETV
attr recordingmode vector
attr title "Queue length"
vector 162 Fattreenew.oss[1].ost[7].flashBuffer[0] queueLength:vector ETV
attr recordingmode vector
attr title "Queue length"
vector 163 Fattreenew.oss[7].ost[7].flashBuffer[6] queueLength:vector ETV
attr recordingmode vector
attr title "Queue length"
vector 164 Fattreenew.oss[7].ost[4].flashBuffer[4] queueLength:vector ETV
attr recordingmode vector
attr title "Queue length"
vector 165 Fattreenew.oss[7].ost[1].flashBuffer[3] queueLength:vector ETV
attr recordingmode vector
attr title "Queue length"
vector 166 Fattreenew.oss[1].ost[7].storageDevice[0] queueLength:vector ETV
attr recordingmode vector
attr title "Queue length"
vector 167 Fattreenew.oss[7].ost[7].storageDevice[6] queueLength:vector ETV
attr recordingmode vector
attr title "Queue length"
vector 168 Fattreenew.oss[7].ost[4].storageDevice[4] queueLength:vector ETV
attr recordingmode vector
attr title "Queue length"
vector 169 Fattreenew.oss[2].ost[7].flashBuffer[1] queueLength:vector ETV
attr recordingmode vector
attr title "Queue length"
vector 170 Fattreenew.oss[7].ost[1].storageDevice[3] queueLength:vector ETV
attr recordingmode vector
attr title "Queue length"
vector 171 Fattreenew.oss[5].ost[1].flashBuffer[2] queueLength:vector ETV
attr recordingmode vector
attr title "Queue length"
vector 172 Fattreenew.oss[1].ost[6].flashBuffer[1] queueLength:vector ETV
attr recordingmode vector
attr title "Queue length"
vector 173 Fattreenew.oss[2].ost[7].storageDevice[1] queueLength:vector ETV
attr recordingmode vector
attr title "Queue length"
vector 174 Fattreenew.oss[5].ost[1].storageDevice[2] queueLength:vector ETV
attr recordingmode vector
attr title "Queue length"
vector 175 Fattreenew.oss[1].ost[6].storageDevice[1] queueLength:vector ETV
attr recordingmode vector
attr title "Queue length"
vector 176 Fattreenew.oss[2].ost[9].flashBuffer[0] queueLength:vector ETV
attr recordingmode vector
attr title "Queue length"
vector 177 Fattreenew.oss[4].ost[3].flashBuffer[9] queueLength:vector ETV
attr recordingmode vector
attr title "Queue length"
vector 178 Fattreenew.oss[0].ost[4].flashBuffer[2] queueLength:vector ETV
attr recordingmode vector
attr title "Queue length"
vector 179 Fattreenew.oss[2].ost[9].storageDevice[0] queueLength:vector ETV
attr recordingmode vector
attr title "Queue length"
vector 180 Fattreenew.oss[0].ost[2].flashBuffer[4] queueLength:vector ETV
attr recordingmode vector
attr title "Queue length"
vector 181 Fattreenew.oss[4].ost[3].storageDevice[9] queueLength:vector ETV
attr recordingmode vector
attr title "Queue length"
vector 182 Fattreenew.oss[0].ost[4].storageDevice[2] queueLength:vector ETV
attr recordingmode vector
attr title "Queue length"
vector 183 Fattreenew.oss[4].ost[8].flashBuffer[1] queueLength:vector ETV
attr recordingmode vector
attr title "Queue length"
vector 184 Fattreenew.oss[0].ost[2].storageDevice[4] queueLength:vector ETV
attr recordingmode vector
attr title "Queue length"
vector 185 Fattreenew.oss[4].ost[5].flashBuffer[0] queueLength:vector ETV
attr recordingmode vector
attr title "Queue length"
vector 186 Fattreenew.oss[1].ost[2].flashBuffer[3] queueLength:vector ETV
attr recordingmode vector
attr title "Queue length"
vector 187 Fattreenew.oss[4].ost[8].storageDevice[1] queueLength:vector ETV
attr recordingmode vector
attr title "Queue length"
vector 188 Fattreenew.oss[3].ost[9].flashBuffer[6] queueLength:vector ETV
attr recordingmode vector
attr title "Queue length"
vector 189 Fattreenew.oss[1].ost[8].flashBuffer[5] queueLength:vector ETV
attr recordingmode vector
attr title "Queue length"
vector 190 Fattreenew.oss[4].ost[6].flashBuffer[4] queueLength:vector ETV
attr recordingmode vector
attr title "Queue length"
vector 191 Fattreenew.oss[3].ost[4].flashBuffer[4] queueLength:vector ETV
attr recordingmode vector
attr title "Queue length"
vector 192 Fattreenew.oss[7].ost[7].flashBuffer[7] queueLength:vector ETV
attr recordingmode vector
attr title "Queue length"
vector 193 Fattreenew.oss[4].ost[5].storageDevice[0] queueLength:vector ETV
attr recordingmode vector
attr title "Queue length"
vector 194 Fattreenew.oss[5].ost[2].flashBuffer[8] queueLength:vector ETV
attr recordingmode vector
attr title "Queue length"
vector 195 Fattreenew.oss[1].ost[2].storageDevice[3] queueLength:vector ETV
attr recordingmode vector
attr title "Queue length"
vector 196 Fattreenew.oss[3].ost[9].storageDevice[6] queueLength:vector ETV
attr recordingmode vector
attr title "Queue length"
vector 197 Fattreenew.oss[1].ost[8].storageDevice[5] queueLength:vector ETV
attr recordingmode vector
attr title "Queue length"
vector 198 Fattreenew.oss[0].ost[6].flashBuffer[7] queueLength:vector ETV
attr recordingmode vector
attr title "Queue length"
vector 199 Fattreenew.oss[4].ost[6].storageDevice[4] queueLength:vector ETV
attr recordingmode vector
attr title "Queue length"
vector 200 Fattreenew.oss[3].ost[4].storageDevice[4] queueLength:vector ETV
attr recordingmode vector
attr title "Queue length"
vector 201 Fattreenew.oss[7].ost[7].storageDevice[7] queueLength:vector ETV
attr recordingmode vector
attr title "Queue length"
vector 202 Fattreenew.oss[5].ost[2].storageDevice[8] queueLength:vector ETV
attr recordingmode vector
attr title "Queue length"
vector 203 Fattreenew.oss[0].ost[6].storageDevice[7] queueLength:vector ETV
attr recordingmode vector
attr title "Queue length"
vector 204 Fattreenew.oss[1].ost[4].flashBuffer[8] queueLength:vector ETV
attr recordingmode vector
attr title "Queue length"
vector 205 Fattreenew.oss[2].ost[0].flashBuffer[5] queueLength:vector ETV
attr recordingmode vector
attr title "Queue length"
vector 206 Fattreenew.oss[1].ost[4].storageDevice[8] queueLength:vector ETV
attr recordingmode vector
attr title "Queue length"
vector 207 Fattreenew.oss[1].ost[3].flashBuffer[8] queueLength:vector ETV
attr recordingmode vector
attr title "Queue length"
vector 208 Fattreenew.oss[5].ost[8].flashBuffer[8] queueLength:vector ETV
attr recordingmode vector
attr title "Queue length"
vector 209 Fattreenew.oss[2].ost[0].storageDevice[5] queueLength:vector ETV
attr recordingmode vector
attr title "Queue length"
vector 210 Fattreenew.oss[1].ost[3].storageDevice[8] queueLength:vector ETV
attr recordingmode vector
attr title "Queue length"
vector 211 Fattreenew.oss[6].ost[9].flashBuffer[8] queueLength:vector ETV
attr recordingmode vector
attr title "Queue length"
vector 212 Fattreenew.oss[5].ost[8].storageDevice[8] queueLength:vector ETV
attr recordingmode vector
attr title "Queue length"
vector 213 Fattreenew.oss[6].ost[9].storageDevice[8] queueLength:vector ETV
attr recordingmode vector
attr title "Queue length"
vector 214 Fattreenew.oss[4].ost[8].flashBuffer[3] queueLength:vector ETV
attr recordingmode vector
attr title "Queue length"
vector 215 Fattreenew.oss[4].ost[0].flashBuffer[4] queueLength:vector ETV
attr recordingmode vector
attr title "Queue length"
vector 216 Fattreenew.oss[2].ost[3].flashBuffer[0] queueLength:vector ETV
attr recordingmode vector
attr title "Queue length"
vector 217 Fattreenew.oss[2].ost[8].flashBuffer[5] queueLength:vector ETV
attr recordingmode vector
attr title "Queue length"
vector 218 Fattreenew.oss[4].ost[8].storageDevice[3] queueLength:vector ETV
attr recordingmode vector
attr title "Queue length"
vector 219 Fattreenew.oss[4].ost[0].storageDevice[4] queueLength:vector ETV
attr recordingmode vector
attr title "Queue length"
vector 220 Fattreenew.oss[2].ost[9].flashBuffer[1] queueLength:vector ETV
attr recordingmode vector
attr title "Queue length"
vector 221 Fattreenew.oss[2].ost[3].storageDevice[0] queueLength:vector ETV
attr recordingmode vector
attr title "Queue length"
vector 222 Fattreenew.oss[4].ost[9].flashBuffer[0] queueLength:vector ETV
attr recordingmode vector
attr title "Queue length"
vector 223 Fattreenew.oss[2].ost[8].storageDevice[5] queueLength:vector ETV
attr recordingmode vector
attr title "Queue length"
vector 224 Fattreenew.oss[2].ost[6].flashBuffer[7] queueLength:vector ETV
attr recordingmode vector
attr title "Queue length"
vector 225 Fattreenew.oss[2].ost[9].storageDevice[1] queueLength:vector ETV
attr recordingmode vector
attr title "Queue length"
vector 226 Fattreenew.oss[4].ost[9].storageDevice[0] queueLength:vector ETV
attr recordingmode vector
attr title "Queue length"
vector 227 Fattreenew.oss[7].ost[8].flashBuffer[6] queueLength:vector ETV
attr recordingmode vector
attr title "Queue length"
vector 228 Fattreenew.oss[2].ost[6].storageDevice[7] queueLength:vector ETV
attr recordingmode vector
attr title "Queue length"
vector 229 Fattreenew.oss[0].ost[0].flashBuffer[4] queueLength:vector ETV
attr recordingmode vector
attr title "Queue length"
vector 230 Fattreenew.oss[5].ost[1].flashBuffer[1] queueLength:vector ETV
attr recordingmode vector
attr title "Queue length"
vector 231 Fattreenew.oss[7].ost[8].storageDevice[6] queueLength:vector ETV